256
step:0 columns:species,position,velocity,unfolded_position,initial_position dt:0.002 cell:5.97520638,5.97520638,5.97520638 
1 -1.674110616865 -0.557433376597 -2.226106797333 0.069058760971 -0.091968669679 1.010644722947 -1.674110616865 -0.557433376597 -2.226106797333 -1.714839000000 -0.937949000000 -2.131360000000
1 -1.287519888640 2.649857899775 2.314116989710 0.462448669919 -0.293835127194 -0.325108239031 -1.287519888640 2.649857899775 2.314116989710 -1.211776000000 2.948494000000 2.511917000000
1 2.054577904773 2.258158969305 2.147943558995 0.614002245643 -0.651199101008 -0.181845242644 2.054577904773 2.258158969305 2.147943558995 1.996235000000 2.523680000000 2.226487000000
1 0.713206750224 0.374998883169 -0.912499133222 0.438650515867 0.375547074197 -0.342615521631 0.713206750224 0.374998883169 -0.912499133222 0.855585000000 0.453260000000 -1.029755000000
1 1.576514692010 -1.674199430772 -0.509322348749 0.896138188696 -0.592872095250 0.708237295335 1.576514692010 -1.674199430772 -0.509322348749 1.037601000000 -1.981316000000 -0.560220000000
1 2.832502156802 0.962228249574 1.234751838280 0.173260802177 -1.246775839045 -0.598327186085 -3.142704223198 0.962228249574 1.234751838280 -2.924127000000 1.033881000000 1.487932000000
1 2.090371622071 -0.371969051685 1.707260635757 -0.062673843270 0.148948128159 -0.099001913860 2.090371622071 -0.371969051685 1.707260635757 2.054192000000 -0.421368000000 1.695819000000
1 0.464168857816 -2.964641483651 -0.849914732351 -0.560947712468 0.959202730356 0.535810809704 0.464168857816 3.010564896349 -0.849914732351 0.455098000000 2.599549000000 -0.692177000000
1 2.362835389515 2.928449457506 0.485826994229 0.369466572891 0.494074651567 1.128850291679 2.362835389515 2.928449457506 0.485826994229 2.787556000000 2.913021000000 0.461690000000
1 -1.988493304243 -2.894772989343 -1.441641616288 -0.520763282412 -0.798505321181 -0.369197773912 -1.988493304243 -2.894772989343 -1.441641616288 -2.181990000000 -2.831126000000 -1.736475000000
1 -0.452334211261 -1.631999835124 1.149784324955 0.356462974238 1.305585774287 -1.267921600621 -0.452334211261 -1.631999835124 1.149784324955 -0.836992000000 -0.979177000000 1.144547000000
1 -1.831612500478 -2.693494487860 0.908438910146 1.613193003900 0.450063823697 1.682797936636 -1.831612500478 -2.693494487860 0.908438910146 -1.705387000000 -2.830942000000 0.810116000000
1 1.813373953602 1.486807654115 -2.148805513922 -0.029677099970 0.087046496244 -0.832103050295 1.813373953602 1.486807654115 -2.148805513922 1.976074000000 1.560541000000 -2.091745000000
1 -0.572290264637 -2.469114562301 2.102334120381 1.058108354406 -0.400127373475 1.083698887831 -0.572290264637 -2.469114562301 2.102334120381 -0.765709000000 -2.100554000000 2.966101000000
1 0.219672308898 -1.841882104996 1.903360657292 -0.379479064180 0.166461567860 -1.129834636158 0.219672308898 -1.841882104996 1.903360657292 -0.033721000000 -1.780223000000 1.461107000000
1 1.754004460869 1.355501629954 2.780472888317 1.006637752400 1.318852235136 -0.220875222259 1.754004460869 1.355501629954 2.780472888317 1.899691000000 1.067534000000 2.925289000000
1 1.972892633295 1.425443514830 1.380443429645 0.908314898130 1.597814291417 0.899062289508 1.972892633295 1.425443514830 1.380443429645 2.090738000000 1.308563000000 1.191187000000
1 1.314472155120 -2.016332514950 2.687754261028 0.483514240320 -0.605612599751 -0.962255621923 1.314472155120 -2.016332514950 2.687754261028 1.110322000000 -1.567127000000 2.794823000000
1 1.800761119807 1.017236123922 0.425060881258 0.612884407100 0.886442508808 0.203202182935 1.800761119807 1.017236123922 0.425060881258 1.851355000000 0.837021000000 0.293442000000
1 -1.243252198425 1.486597219656 1.092077954024 -0.105556431843 0.587884327165 -0.221072432762 -1.243252198425 1.486597219656 1.092077954024 -0.282999000000 1.679649000000 0.762956000000
1 -1.164725559133 1.071078742161 -2.954885949189 -0.146777578458 -0.491510413588 -1.261913057817 -1.164725559133 1.071078742161 -2.954885949189 -1.077636000000 1.021629000000 -2.910218000000
1 -0.988038261743 2.652991722002 -1.782708056102 -0.183993591712 0.242720067630 -0.429896499550 -0.988038261743 2.652991722002 -1.782708056102 -1.336326000000 2.759152000000 -1.872501000000
1 -1.939455792017 0.358008799621 2.350954306536 -1.118153539848 -1.021652274864 0.683384382233 -1.939455792017 0.358008799621 2.350954306536 -1.959630000000 0.891868000000 2.467443000000
1 -2.932734641469 2.709394331936 -1.105353577185 -0.733260476654 -0.301076314918 -0.562695262397 -2.932734641469 2.709394331936 -1.105353577185 -2.792503000000 2.822683000000 -0.984712000000
1 -1.093139160877 -0.811119155485 0.989579385535 0.596221248294 -1.686473842091 -0.229258592459 -1.093139160877 -0.811119155485 0.989579385535 -1.194005000000 -0.095918000000 0.797072000000
1 -2.113679023378 -2.878778432951 1.985961134787 1.171832549779 0.029643060507 -0.250579056866 -2.113679023378 -2.878778432951 1.985961134787 -2.302560000000 -2.559405000000 2.485803000000
1 0.861772650928 1.715170074598 -1.943526712181 -0.646908618887 -0.242806363505 1.345198378647 0.861772650928 1.715170074598 -1.943526712181 0.956890000000 1.779575000000 -2.005509000000
1 0.545500710568 -1.061480967173 1.077454249100 -0.463470859599 0.991579965438 0.341863079142 0.545500710568 -1.061480967173 1.077454249100 0.417521000000 -1.202130000000 0.645061000000
1 1.430843425412 0.341555135981 2.639174743713 0.830428229297 0.182130303702 0.711546039353 1.430843425412 0.341555135981 2.639174743713 1.392436000000 0.200575000000 2.545116000000
1 0.692544137506 -0.247032029783 -1.889298121182 1.452713126951 -2.042874086704 -0.246868271528 0.692544137506 -0.247032029783 -1.889298121182 1.114344000000 -0.279304000000 -1.691260000000
1 0.365402254107 0.721879945387 -1.897177234813 -0.032889822889 -0.380839079215 -0.105270494925 0.365402254107 0.721879945387 -1.897177234813 0.391610000000 0.746289000000 -1.930535000000
1 -2.581273173842 2.582408972892 0.539401638151 0.265842531166 -0.461269159387 -0.221058175683 -2.581273173842 2.582408972892 0.539401638151 -2.311679000000 2.284348000000 0.684273000000
1 -2.086609995277 1.369453793000 2.408557933808 0.505942914146 1.120556613684 0.756154621172 -2.086609995277 1.369453793000 2.408557933808 -2.029791000000 1.585168000000 1.490434000000
1 -1.311457540509 2.381404085078 -0.772946529395 0.786629305106 0.426824295910 0.023330869123 -1.311457540509 2.381404085078 -0.772946529395 -1.436315000000 2.380307000000 -0.968121000000
1 -1.199279700977 1.720534752023 -2.045782113986 -1.018737404415 -2.447343595090 0.214381495892 -1.199279700977 1.720534752023 -2.045782113986 -1.102996000000 1.948307000000 -2.484377000000
1 1.584834354657 2.090475391090 0.389426140727 0.318774098269 -0.241576283639 -0.297822123299 1.584834354657 2.090475391090 0.389426140727 1.840881000000 2.219005000000 0.627629000000
1 -0.852826163760 -0.409597139697 1.958565089584 -0.992442361344 0.164999824164 -0.070775114318 -0.852826163760 -0.409597139697 1.958565089584 -1.240822000000 -0.492106000000 1.978958000000
1 1.270168534746 2.405642020134 1.420760193192 -0.663337448291 0.803775597051 0.928725006196 1.270168534746 2.405642020134 1.420760193192 1.245068000000 2.860391000000 1.237657000000
1 2.306220188300 -0.936893585343 -1.991235766320 -1.799272611692 -0.231511141666 0.924844941337 2.306220188300 -0.936893585343 -1.991235766320 2.001627000000 -0.871109000000 -1.597886000000
1 1.232941816543 -2.798492949535 0.714371372752 -0.158248099234 -0.986407489592 0.303347579105 1.232941816543 -2.798492949535 0.714371372752 1.833268000000 -2.621801000000 0.350407000000
1 1.063049448592 1.586333007992 2.011541279611 1.890719501277 0.794386997000 0.033088392599 1.063049448592 1.586333007992 2.011541279611 1.413619000000 1.840063000000 1.743201000000
1 2.090335464652 -1.007086455008 0.475508854470 -0.273736527709 0.233976927129 -0.072845034874 2.090335464652 -1.007086455008 0.475508854470 2.232766000000 -0.865732000000 0.481627000000
1 2.823654475583 1.510709652097 2.335383582176 -0.515872999668 -0.796212171015 -1.160412335101 2.823654475583 1.510709652097 2.335383582176 2.409336000000 1.593723000000 2.052789000000
1 0.415665129989 -1.475286789494 2.852998080903 -0.669743508517 -0.727127006312 1.606141351566 0.415665129989 -1.475286789494 2.852998080903 0.064737000000 -1.550703000000 2.668711000000
1 2.959899604793 -0.060261887015 -2.232297079804 0.277744293819 0.267943965560 0.281529301520 2.959899604793 -0.060261887015 -2.232297079804 2.821823000000 -0.440928000000 -2.059196000000
1 -2.415644801135 2.331872436951 2.680468302666 0.069014898189 0.943761451708 -0.712294324096 -2.415644801135 2.331872436951 2.680468302666 -2.979368000000 2.447503000000 2.595696000000
1 2.381301816970 -1.998102244431 0.704522548514 1.936909413940 -0.423201971114 -0.232639121265 2.381301816970 -1.998102244431 0.704522548514 2.504344000000 -1.982476000000 0.914877000000
1 0.811156585473 -2.167439117058 -0.046664725909 0.074466690453 0.515906625677 0.447891292223 0.811156585473 -2.167439117058 -0.046664725909 0.094075000000 -2.464132000000 -0.311040000000
1 -2.384406482017 -2.616391302581 -2.917537969276 -1.163330435934 0.355456212585 -0.079091749555 -2.384406482017 -2.616391302581 -2.917537969276 -2.764923000000 -2.448177000000 -2.530550000000
1 2.761334036310 -1.000420788693 2.243312224877 0.748090237300 -0.200218818182 -0.507606601806 -3.213872343690 -1.000420788693 2.243312224877 -2.886384000000 -0.901024000000 2.325303000000
1 -2.038926766900 1.617258508304 -2.477609143490 0.473249855353 0.890234646720 0.058151555306 -2.038926766900 1.617258508304 -2.477609143490 -2.228344000000 1.468435000000 -2.631215000000
1 0.241819911385 2.877253631576 1.762693975168 0.649596120780 -0.914978169089 0.498073139568 0.241819911385 -3.097952748424 1.762693975168 -0.526823000000 -2.451495000000 2.057016000000
1 0.723339903435 -2.059454176555 -2.345277534727 -0.191886372684 0.382702677601 0.069150051309 0.723339903435 -2.059454176555 -2.345277534727 1.043204000000 -2.276548000000 -2.450839000000
1 1.268686900156 0.682193510208 1.539978980093 -0.706518337369 -0.150371127721 -0.516604958006 1.268686900156 0.682193510208 1.539978980093 1.352097000000 0.623085000000 1.549460000000
1 -1.111142982691 0.072468118777 -2.830827567497 0.554423882517 1.768068044137 0.626866888980 -1.111142982691 0.072468118777 3.144378812503 -1.475669000000 -1.099288000000 2.878324000000
1 -2.582526670312 -1.931304780047 2.082430512385 0.558198083719 -0.540176461116 -1.053910330575 3.392679709688 -1.931304780047 2.082430512385 2.923354000000 -1.677845000000 1.809526000000
1 -1.935384910811 -1.575862204420 -2.635321077110 0.217372833456 0.631920890296 -0.077769237041 -1.935384910811 -1.575862204420 3.339885302890 -2.333175000000 -1.690287000000 2.944808000000
1 1.835719893590 -2.918708898841 2.655193358668 -0.562630892800 0.722483904213 -0.317705705664 1.835719893590 -2.918708898841 2.655193358668 1.459607000000 -2.572708000000 2.661503000000
1 2.092276237792 -1.404674211149 1.567161765269 -0.394642727332 0.099706770438 -0.224046031931 2.092276237792 -1.404674211149 1.567161765269 1.429519000000 -1.657564000000 1.002119000000
1 2.919202769617 -0.734204040197 1.117574887674 -1.391171478724 0.209364568411 -0.680087177654 -3.056003610383 -0.734204040197 1.117574887674 -2.880306000000 -0.824010000000 1.359955000000
1 1.544554763798 -0.152901504880 0.824176068922 0.723626916681 0.754586269368 -0.124095094023 1.544554763798 -0.152901504880 0.824176068922 1.585475000000 -0.107650000000 0.805346000000
1 -0.418040365701 -1.930762250035 -2.894767705176 -0.924330626081 0.132026688095 -0.068667104503 -0.418040365701 -1.930762250035 -2.894767705176 0.076819000000 -1.897004000000 -2.250535000000
1 -2.852266242728 -0.002671511124 1.802477558133 1.543442156807 2.245027167429 0.654212477280 -2.852266242728 -0.002671511124 1.802477558133 -2.903979000000 0.036361000000 1.916138000000
1 2.244448463565 1.370630899790 -0.422835528153 0.337182445224 0.492286437424 -0.501041821486 2.244448463565 1.370630899790 -0.422835528153 2.684886000000 1.220267000000 -0.310793000000
1 2.495675194459 -0.113802116636 2.714871230733 -0.809958090811 -1.378620352823 -1.753124168417 2.495675194459 -0.113802116636 2.714871230733 2.635786000000 -0.046352000000 2.829426000000
1 0.946323058591 1.544410100296 0.895724208750 0.376300341618 0.003086201777 0.712529170646 0.946323058591 1.544410100296 0.895724208750 1.148866000000 1.500827000000 0.668134000000
1 -1.014433644732 0.427868761811 1.313006628943 0.881924782609 0.584672290125 -0.767085250753 -1.014433644732 0.427868761811 1.313006628943 -1.573180000000 0.428010000000 1.575892000000
1 -0.116776730810 1.143188233023 -0.263575172734 -0.427625376138 -1.103708007416 0.672110785819 -0.116776730810 1.143188233023 -0.263575172734 0.382940000000 1.790665000000 -0.104901000000
1 -1.055022458161 1.726909820465 -0.013910454201 -0.324018793850 -0.089945888899 -0.508195305654 -1.055022458161 1.726909820465 -0.013910454201 -0.943558000000 2.366256000000 0.047026000000
1 0.413966456362 2.661853984697 0.791205229230 -0.281548498916 -0.022202905247 -0.072969755623 0.413966456362 2.661853984697 0.791205229230 0.948476000000 2.859632000000 0.207954000000
1 1.406552102409 0.587151246482 -1.930681636120 1.533742376120 1.502404746176 -0.381277439140 1.406552102409 0.587151246482 -1.930681636120 1.506410000000 0.663620000000 -1.996945000000
1 -2.918895669964 0.990919969248 0.155802753627 -1.231457331295 -0.655544172900 0.086109511599 -2.918895669964 0.990919969248 0.155802753627 -2.750585000000 0.419395000000 -0.093356000000
1 -2.105606471818 0.882939193448 1.466257691265 0.973023074788 -1.008315275679 -0.013864984408 -2.105606471818 0.882939193448 1.466257691265 -1.049391000000 1.319238000000 1.836230000000
1 -1.227887498948 0.688142757430 -0.526436399882 0.416486610166 -0.297562450127 0.512986036903 -1.227887498948 0.688142757430 -0.526436399882 -1.503403000000 0.334994000000 -0.995023000000
1 -0.566985110130 2.460221493988 1.399368491963 -0.531537667295 0.479316596550 0.024918030191 -0.566985110130 2.460221493988 1.399368491963 -0.391182000000 2.189425000000 1.680699000000
1 -0.234274303862 -2.480799888663 -1.923316323850 1.551788129102 -0.579003868795 -0.219956684560 -0.234274303862 -2.480799888663 -1.923316323850 -0.428859000000 -2.836610000000 -1.465196000000
1 2.315293787053 2.641120635500 -2.207456892122 1.000723559689 1.189294035949 -0.266524345572 2.315293787053 2.641120635500 -2.207456892122 1.798321000000 2.510228000000 -2.529814000000
1 1.569987788280 2.313358998460 -1.494092210232 0.305847150669 0.569645433770 0.357764811065 1.569987788280 2.313358998460 -1.494092210232 1.860795000000 2.377673000000 -1.494230000000
1 -0.039995303273 -0.533567459925 -1.126099663596 0.188084383541 -0.591271521164 -0.303841509806 -0.039995303273 -0.533567459925 -1.126099663596 -0.434441000000 -0.345066000000 -1.210999000000
1 1.526379277144 1.261325660549 -1.124623182944 -0.305304756443 0.789336294490 -0.270070122104 1.526379277144 1.261325660549 -1.124623182944 1.632326000000 1.371997000000 -1.101213000000
1 0.253616451790 2.448656238694 -2.904362046704 0.447053492556 0.427098980445 0.365628680661 0.253616451790 2.448656238694 -2.904362046704 0.205161000000 2.439907000000 -2.912039000000
1 1.648055220653 -0.844316017703 2.586840690372 -0.449428353909 0.266365115073 -0.158653714756 1.648055220653 -0.844316017703 2.586840690372 1.833772000000 -0.832757000000 2.586274000000
1 -1.286923480612 2.420674625006 0.645710218241 -0.430731904761 0.393047644582 1.951436912534 -1.286923480612 2.420674625006 0.645710218241 -1.269960000000 2.159809000000 1.050280000000
1 1.143503509164 -1.412615941241 1.895308976272 -0.056217149339 1.187928877489 1.899651650991 1.143503509164 -1.412615941241 1.895308976272 0.806914000000 -1.290874000000 1.902725000000
1 -1.581789845996 2.699732497493 -2.674269282488 -0.615155675743 -0.911927952076 1.491890742121 -1.581789845996 2.699732497493 -2.674269282488 -2.153104000000 2.582721000000 -2.709170000000
1 -1.467328033456 -2.312319967582 2.675947153368 0.205566874923 -0.171377313492 0.450415897212 -1.467328033456 -2.312319967582 -3.299259226632 -1.614982000000 -2.449627000000 -2.594075000000
1 2.543268208353 0.318831112411 -0.521618939288 0.479219473834 0.748688233322 0.413965495478 2.543268208353 0.318831112411 -0.521618939288 2.236513000000 -0.004521000000 -0.111570000000
1 -2.232741620442 -1.468961848403 -0.226734107710 -0.374964687742 0.383867407843 -0.325884342804 -2.232741620442 -1.468961848403 -0.226734107710 -2.343156000000 -1.342366000000 -0.053258000000
1 -2.270150592606 0.393976549209 -0.405135973384 0.356628533125 -0.832661575775 0.164510664406 -2.270150592606 0.393976549209 -0.405135973384 -1.731044000000 0.386559000000 -0.002215000000
1 1.685369433187 0.013137601786 -1.091783230835 1.074753198420 0.191812331454 1.906102537919 1.685369433187 0.013137601786 -1.091783230835 1.847034000000 -0.004350000000 -1.049689000000
1 0.332620978451 -2.499928716663 2.685871664922 0.102108466626 -1.019923872563 1.165776831855 0.332620978451 -2.499928716663 2.685871664922 0.164751000000 -2.545915000000 2.959352000000
1 -1.774418346327 0.910076328320 0.345571350801 0.797897827521 -0.627335472657 0.631968143412 -1.774418346327 0.910076328320 0.345571350801 -0.802914000000 0.848021000000 0.981575000000
1 0.617483976954 -0.319438145618 2.769136634049 -2.161216797897 0.813069559680 0.214927541292 0.617483976954 -0.319438145618 2.769136634049 0.602332000000 -0.468420000000 2.757372000000
1 0.674421644854 -1.994759529591 -1.335042894119 -0.462736096763 0.176227425153 0.826328704306 0.674421644854 -1.994759529591 -1.335042894119 0.542526000000 -2.343084000000 -1.357144000000
1 -0.208504319409 -0.816626249085 0.406417931176 -0.132188389795 -0.369873101395 0.098408767571 -0.208504319409 -0.816626249085 0.406417931176 -0.302801000000 -0.666489000000 0.292570000000
1 -0.352131912774 0.440799969225 -1.086976642076 -0.198921014250 -1.400033246354 1.142198401285 -0.352131912774 0.440799969225 -1.086976642076 -0.416940000000 0.661460000000 -1.034830000000
1 2.545820492529 0.093556003172 0.560100280483 -1.701923252829 1.488613468913 0.295000257393 2.545820492529 0.093556003172 0.560100280483 2.547881000000 0.194187000000 0.991262000000
1 2.859574533259 -0.514520837526 -1.181276906505 0.045776707618 -0.912574239157 -0.530709554432 2.859574533259 -0.514520837526 -1.181276906505 2.873317000000 -0.169337000000 -1.034248000000
1 -1.298596640386 -2.287633283586 -2.117739923334 0.179963853407 -0.214187034256 -0.322263017151 -1.298596640386 -2.287633283586 -2.117739923334 -0.979079000000 -2.118532000000 -1.844252000000
1 0.717282515022 2.104996629168 -0.155851356195 -0.526266877264 -0.184051623852 0.209859589627 0.717282515022 2.104996629168 -0.155851356195 1.322873000000 2.052818000000 -0.256736000000
1 -0.451169816566 -0.764870467174 2.954472670487 0.427878765562 -0.676711043864 0.528466482774 -0.451169816566 -0.764870467174 2.954472670487 -0.558038000000 -0.368219000000 2.929755000000
1 2.707887867507 -1.620273388427 -0.195845321995 0.188189110296 0.323521402560 -0.918103064808 2.707887867507 -1.620273388427 -0.195845321995 2.664340000000 -1.549337000000 -0.156841000000
1 2.453998948059 -2.404192232820 -1.630985583601 0.522583150645 1.596083589018 1.221263371876 2.453998948059 -2.404192232820 -1.630985583601 2.850358000000 -2.302773000000 -1.564148000000
1 -2.246816143851 -1.064152602424 1.771008908715 -0.738616975695 0.152899354631 -0.350468264482 -2.246816143851 -1.064152602424 1.771008908715 -2.012164000000 -1.325588000000 2.024481000000
1 1.031316360277 1.129864120646 -0.174219715355 -0.689334459921 0.518466528573 0.507444731629 1.031316360277 1.129864120646 -0.174219715355 1.085472000000 1.044951000000 -0.284532000000
1 -2.975125717485 -0.569852494343 -0.130776772611 1.496398556466 0.797360371660 0.563822023764 -2.975125717485 -0.569852494343 -0.130776772611 -2.808228000000 -0.570902000000 0.328379000000
1 -1.884886619388 1.416552724618 -0.553526525373 0.262097879566 1.487205250189 1.082138083868 -1.884886619388 1.416552724618 -0.553526525373 -1.543428000000 1.306174000000 -0.584025000000
1 0.400295977465 -1.268039805377 -0.503623313138 0.938171420669 0.280610096569 -0.297826601387 0.400295977465 -1.268039805377 -0.503623313138 0.280969000000 -1.272529000000 -0.372846000000
1 0.433278325669 0.630367589174 2.310523604368 -1.173881384996 -0.346816801966 0.443536918927 0.433278325669 0.630367589174 2.310523604368 0.540227000000 0.575648000000 2.166731000000
1 -1.188505084119 -0.992295511395 -0.099061142222 -0.556335574295 -1.197509099764 -0.535735526902 -1.188505084119 -0.992295511395 -0.099061142222 -1.307685000000 -0.798558000000 0.051071000000
1 -0.540349374455 -2.882207383215 -0.996182136082 0.693505480605 0.519555046975 0.399876941613 -0.540349374455 -2.882207383215 -0.996182136082 -1.285397000000 -2.622762000000 -0.952998000000
1 -2.655851881466 -2.136725711073 -0.823899920849 1.028583188530 -0.415028340045 -0.776434503633 -2.655851881466 -2.136725711073 -0.823899920849 -2.379983000000 -2.162621000000 -0.799144000000
1 -0.464556099764 -1.731417305249 -1.178388201762 -0.226302212288 -0.672654254142 1.399505978211 -0.464556099764 -1.731417305249 -1.178388201762 -0.342022000000 -1.899902000000 -1.034692000000
1 0.979150141622 -0.337924677660 1.746328161848 -1.323365135493 0.136807193513 0.458278545392 0.979150141622 -0.337924677660 1.746328161848 0.796773000000 -0.270935000000 1.575841000000
1 -0.097516937615 -2.810877585891 -0.025240741122 0.486823531944 0.489695458312 -0.328649179417 -0.097516937615 3.164328794109 -0.025240741122 -0.004969000000 2.711084000000 0.335310000000
1 -2.740194335355 0.824564064648 -2.958053281854 0.375202257085 0.734880423827 0.193661318340 3.235012044645 0.824564064648 3.017153098146 2.950861000000 1.046366000000 2.750539000000
1 -0.003835885071 2.189554703143 -1.558203527758 -0.572202666411 1.914928257164 0.197963760980 -0.003835885071 2.189554703143 -1.558203527758 -0.298723000000 2.202975000000 -1.922290000000
1 2.267097262111 0.671811724847 2.117356577950 1.316078201233 -0.339941116952 -0.109253549008 2.267097262111 0.671811724847 2.117356577950 2.185157000000 0.575989000000 2.093339000000
1 1.485853177333 -2.684527320841 -1.281817912348 0.947439653484 0.282573900110 -0.892047368589 1.485853177333 -2.684527320841 -1.281817912348 1.840256000000 -2.591577000000 -1.724723000000
1 2.128133447750 -2.711943554496 1.485564868405 0.883992029316 0.037462166272 -0.691908560990 2.128133447750 -2.711943554496 1.485564868405 2.173130000000 -2.822548000000 1.415115000000
1 -2.344658766455 1.653666780713 0.832169540105 0.446793513512 -0.488598946264 0.506030853903 -2.344658766455 1.653666780713 0.832169540105 -2.259659000000 1.334056000000 0.245457000000
1 -2.568436778986 2.530035712175 -2.186886333411 -0.981505719182 1.061184664842 0.202202508090 3.406769601014 2.530035712175 -2.186886333411 2.753264000000 2.801731000000 -1.964144000000
1 -0.482160031924 -1.841894373637 -0.082969602123 0.375713766450 0.894687636516 -0.066121524546 -0.482160031924 -1.841894373637 -0.082969602123 -0.472528000000 -1.668778000000 0.292575000000
1 2.450633125907 1.800078341644 -1.431218591217 -0.676016613974 -0.782531645478 0.463018922330 2.450633125907 1.800078341644 -1.431218591217 2.701451000000 1.821946000000 -1.187504000000
1 2.346508611504 -2.533485772930 -0.500019093774 -0.426567233281 -0.493924107052 -0.485303209248 2.346508611504 -2.533485772930 -0.500019093774 2.625568000000 -2.527925000000 -0.479063000000
1 -1.811140176798 -0.231007425658 1.422781274505 0.705318145380 -1.552403368738 0.695260137900 -1.811140176798 -0.231007425658 1.422781274505 -2.074408000000 -0.218071000000 2.358558000000
1 2.324803236329 0.768870461375 -1.478912550864 0.011785329167 -2.721480817405 0.142122452710 2.324803236329 0.768870461375 -1.478912550864 2.469107000000 0.702824000000 -1.248554000000
1 -2.841425711344 -1.572884211957 -2.947570472320 -0.454246384204 -1.687438557822 0.823854802198 3.133780668656 -1.572884211957 -2.947570472320 2.841144000000 -1.484536000000 -2.349148000000
1 -2.447453378602 -0.448989114952 2.876232978177 -0.388920015328 -0.314893406508 -1.043703367924 -2.447453378602 -0.448989114952 -3.098973401823 -2.487167000000 -0.723815000000 -2.766763000000
1 1.008742750180 2.620689770353 2.417736731511 -0.765386829041 -0.456272307221 0.727717735807 1.008742750180 2.620689770353 2.417736731511 0.705862000000 2.632291000000 2.132046000000
1 1.306470797275 2.417857086993 -2.609208904982 -2.218276135995 0.555887497016 -0.786416783460 1.306470797275 2.417857086993 3.365997475018 1.232891000000 2.046391000000 2.757795000000
1 -1.063562327856 1.591736134522 2.198650652461 -0.676385583614 -0.356523040499 -2.115886533750 -1.063562327856 1.591736134522 2.198650652461 -1.623946000000 1.915920000000 2.530977000000
1 -0.761874375748 0.834160672730 0.414811395425 1.093829739539 0.000849565329 -1.879822520974 -0.761874375748 0.834160672730 0.414811395425 -0.600763000000 1.022993000000 -0.060932000000
1 -0.323505002836 -0.041890754920 -0.155653750740 1.728402024825 -0.172057030633 -0.743281971693 -0.323505002836 -0.041890754920 -0.155653750740 0.225468000000 0.021968000000 -0.393755000000
1 -1.013013062685 -0.888252104825 -1.188524109643 -0.718975028596 0.750520665718 0.132045257170 -1.013013062685 -0.888252104825 -1.188524109643 -1.216417000000 -0.217346000000 -1.780350000000
1 -0.969481169415 -1.309156814153 -2.208800800356 0.133684928402 -1.005938196053 0.382110282932 -0.969481169415 -1.309156814153 -2.208800800356 -1.125899000000 -1.173172000000 -1.266198000000
1 -0.786373369651 -2.648048980689 0.975336683304 -0.793821040716 0.615960722392 -1.442446298538 -0.786373369651 -2.648048980689 0.975336683304 -0.978897000000 -2.164572000000 1.161327000000
1 -0.027089261195 1.540750582473 -2.459230738084 -0.051238076837 -1.255177755819 0.415988413504 -0.027089261195 1.540750582473 -2.459230738084 -0.125767000000 1.424678000000 -2.662729000000
1 1.045830011516 -2.462267050420 1.714206829585 0.966600576839 0.025356882414 0.759481049718 1.045830011516 -2.462267050420 1.714206829585 0.659678000000 -2.305788000000 1.874327000000
1 1.127880920582 -1.075857358146 -2.396101583514 -0.225634910229 0.197206534280 -0.863662160584 1.127880920582 -1.075857358146 -2.396101583514 0.743888000000 -1.131786000000 -2.318844000000
1 -2.421150710566 -1.798794779355 1.077243698919 0.432638836061 0.322705684312 -0.817223145171 -2.421150710566 -1.798794779355 1.077243698919 -2.379424000000 -1.748703000000 1.110598000000
1 2.263628288235 0.625588186326 -2.599337385390 0.002458971101 0.947710362774 -0.440095360418 2.263628288235 0.625588186326 -2.599337385390 2.500471000000 0.676429000000 -2.361882000000
1 -1.879474029146 2.072589692447 1.729486508346 -0.523924682353 -0.232486381726 0.500605184876 -1.879474029146 2.072589692447 1.729486508346 -1.936198000000 2.651909000000 1.814299000000
1 -2.290356100814 1.922427526486 -1.415608622470 -1.651601591747 -0.648037382531 0.217922979892 -2.290356100814 1.922427526486 -1.415608622470 -2.211148000000 2.057276000000 -1.689426000000
1 -1.261659628508 -0.049840118366 0.254546150837 -0.618623036755 0.059512932772 0.970343289030 -1.261659628508 -0.049840118366 0.254546150837 -0.782810000000 0.031911000000 -0.301967000000
1 0.442407723804 1.439660489007 -1.021896726615 0.986033865218 1.500474364562 0.131326958109 0.442407723804 1.439660489007 -1.021896726615 0.443859000000 1.463757000000 -1.124797000000
1 2.081395825943 -1.584369339080 -2.752090545696 -0.099096036628 -0.039932313643 1.054920242189 2.081395825943 -1.584369339080 -2.752090545696 1.827505000000 -1.309387000000 -2.524262000000
1 0.002973252358 0.031533855079 1.503720236150 -0.155152749296 -0.107617213509 -0.990689886502 0.002973252358 0.031533855079 1.503720236150 -0.230938000000 0.080279000000 1.424375000000
1 -2.566154682374 0.344243678401 -1.313417232830 0.323555582905 -1.348871380338 -0.246962796370 -2.566154682374 0.344243678401 -1.313417232830 -2.248198000000 -0.093000000000 -1.663675000000
1 2.578738795007 -2.472312670114 -2.661752889857 -0.559648778136 -0.555727618746 -0.474665879403 2.578738795007 -2.472312670114 3.313453490143 2.462124000000 -1.568615000000 2.752073000000
1 -1.342803642370 0.047445101502 -1.476494510289 -0.903645614851 -0.585612506739 0.956275740616 -1.342803642370 0.047445101502 -1.476494510289 -1.533357000000 0.018341000000 -2.708465000000
1 -1.438032642886 -1.917952468254 1.536493469700 -1.359139554106 0.503758829507 1.305087881702 -1.438032642886 -1.917952468254 1.536493469700 -1.761032000000 -2.250648000000 1.760640000000
1 -2.608810466391 -2.203176184891 -2.010405292353 0.507713072569 0.849899644745 -0.361380081123 -2.608810466391 -2.203176184891 -2.010405292353 -2.165101000000 -1.833861000000 -1.853025000000
1 -2.679720039799 -2.420085863245 0.223167524407 0.386611576652 0.499692012803 0.004624072204 -2.679720039799 -2.420085863245 0.223167524407 -2.547867000000 -2.258672000000 0.211331000000
1 0.141203514413 -1.268036931065 -2.068615288931 0.428019236009 -0.566109385266 0.356383058060 0.141203514413 -1.268036931065 -2.068615288931 0.240088000000 -1.124647000000 -1.461524000000
1 -1.907178682229 -0.570780946556 -0.873229551733 -0.851932252008 0.294630790118 0.007707526292 -1.907178682229 -0.570780946556 -0.873229551733 -2.210096000000 -0.301803000000 -0.626533000000
1 0.112984236868 -0.837494951294 2.055617661489 -0.973791939946 -0.600814919913 0.345119761721 0.112984236868 -0.837494951294 2.055617661489 -0.139531000000 -0.795891000000 1.987780000000
1 -2.100086242023 -0.887242399395 0.640927725425 0.028580217606 1.197472077181 -0.435945037256 -2.100086242023 -0.887242399395 0.640927725425 -1.923928000000 -0.840762000000 1.066812000000