150
step:0 columns:id,pos,vel dt:0.002 cell:5.0,5.0,5.0 
A -1.895828 -2.441378 0.748135 0.286100 -0.258778 0.002663
A -1.781533 -2.004271 -1.522651 0.161081 0.096784 -1.305848
A 0.741570 0.589411 -0.288217 -1.281479 -0.982964 -0.492324
A -1.054410 1.161502 -1.636101 -0.794466 -0.229197 0.375743
A -0.042605 -2.370127 -2.291079 1.156465 -0.534271 -0.645642
A 0.505903 -1.049885 0.370246 0.119636 -0.444021 -0.968638
A -2.059220 1.545489 2.044048 -0.524455 -0.397682 -1.081513
A -0.257216 -1.540942 0.841394 1.156340 0.227293 0.416596
A 0.010233 2.342142 0.637017 -0.285921 0.173356 -0.838238
A 0.596937 -1.180023 1.498826 -0.160721 -0.281770 -0.188384
A 2.079684 -0.549760 0.549126 0.063323 0.512237 0.742714
A -0.987198 -1.559412 -0.918519 0.701655 0.208467 -0.096449
A 0.979401 -1.954760 0.659831 0.606386 1.398350 1.128746
A 0.756845 2.448144 -0.115036 0.661929 -0.128281 -0.585860
A -2.027889 1.922540 -1.695621 -0.341309 1.111091 -0.559106
A -1.554939 -0.962219 -1.594010 -0.109339 -0.045952 -0.880614
A 0.392231 0.708941 1.960719 0.636975 -0.836183 -0.251600
A -1.201764 0.810740 2.226752 -1.014488 -1.540249 -0.491737
A 0.246449 -0.210170 2.437569 -0.838590 -0.533502 0.140326
A 1.725032 1.442694 1.835837 0.932238 0.465217 -0.747252
A 2.298864 1.417745 -0.155670 1.748936 -0.582718 -0.264581
A 2.160511 0.264360 1.121327 0.201954 -0.550242 0.637786
A 1.375421 -1.750811 -2.172916 0.168177 -0.162952 -1.038960
A -1.870006 -1.972511 -0.291815 -0.711729 0.886647 -0.160031
A -2.136909 0.775587 0.417585 1.977809 0.093797 0.572594
A -2.127317 0.823802 -1.925118 -0.624523 -0.381230 -0.721974
A 1.358925 1.960102 -0.911763 -1.035644 -0.743109 0.359365
A 0.698673 1.332991 1.207478 0.152258 -0.806331 0.810660
A -1.261223 -2.115779 2.067099 -0.596439 0.467570 0.471841
A -2.366311 2.278045 -0.746445 0.198360 0.094133 -0.218868
A -0.902395 -2.295171 0.171270 -0.727034 0.896276 -0.991932
A -0.043548 -1.854602 -0.232164 1.770118 -0.877301 -0.907649
A -2.033051 -1.189663 0.701105 -1.021238 0.050320 1.196596
A -1.553138 -0.344783 0.542704 -0.654366 0.478007 0.324239
A 1.913608 2.451787 -1.708526 -0.336461 0.144528 0.265183
A -0.277154 0.405498 -0.548816 -0.822747 0.651700 0.419939
A 1.789163 2.207665 0.597020 -0.034986 -1.007532 -1.180422
A 2.089823 1.580951 -2.253953 0.256078 -0.999744 -0.205420
A 2.127711 -1.054135 2.111219 -0.264102 -0.418583 -0.297705
A -1.439465 1.438890 1.198852 1.708876 1.217209 -0.086841
A -0.360789 -0.770053 1.797226 0.234130 -1.545903 -0.654009
A -1.369756 -0.357263 2.086200 -0.536905 -0.954267 -0.823759
A -2.199644 0.513038 1.975343 0.656510 -0.207177 0.638989
A 1.445587 -0.007458 -0.818491 -0.533774 0.684925 0.815852
A -0.874113 1.878597 2.167012 0.851023 -1.059527 -0.295723
A 0.757778 1.634457 2.171000 0.196781 -0.120051 1.987316
A -1.302769 -1.135124 1.460827 -0.607813 -0.580384 -0.325439
A 2.200363 1.311775 -1.162278 0.877705 -0.193040 -0.956583
A 0.145339 0.022496 0.353679 -0.256745 0.920194 0.627399
A 2.032334 0.259522 -1.695123 -0.112622 -1.077188 1.360151
A 2.423805 -1.309463 -0.137466 -0.367326 0.460011 -0.589602
A -2.289152 -0.519110 1.479597 -1.409483 0.162204 0.094695
A -2.267735 -0.179371 -0.114474 0.094221 -0.988957 0.834577
A 0.812825 -1.940405 -0.925934 0.548981 -1.022630 -1.119088
A 0.691162 -2.032492 2.117576 -1.028622 0.804864 0.016990
A 2.295340 -0.671269 -0.996428 -0.380222 -0.117070 -0.072782
A 1.227058 0.964703 -1.225353 0.744455 -0.849506 -0.150014
A -2.180903 -0.432779 -2.238904 0.376010 0.501432 -0.948468
A 1.141956 -0.846094 2.337325 -1.239716 -0.433880 1.431173
A 1.933390 0.024800 2.280801 0.304106 1.638901 0.543088
A 1.735479 -2.297259 -0.352638 0.550996 0.010309 -0.999260
A 0.486551 -0.360674 -0.640077 -0.500765 -0.365350 0.044144
A -0.412327 0.246414 1.448888 -0.078009 0.240970 0.735813
A -0.465679 1.299415 1.488174 -0.278297 -0.098795 -0.445289
A 0.344456 1.370534 -0.806787 0.266210 0.341342 -0.486862
A -1.779163 -1.328233 2.376462 0.739386 0.301980 0.244995
A 1.571683 -1.767277 1.632038 0.771781 1.137864 1.126867
A -1.694619 -0.970025 -0.584706 1.117485 1.044609 -0.634226
A -0.675004 -0.667317 -2.100744 0.099844 0.106027 0.181603
A 0.177870 1.426757 0.213594 0.183633 0.329263 -1.527519
A 1.776740 -0.663832 -1.897717 0.338799 -0.884775 -0.262010
A -1.397855 0.417259 -0.213595 0.379185 0.931291 -0.745273
A 0.045803 -1.289708 -2.399624 1.106956 0.363712 -0.937304
A 1.473645 -0.490438 1.441004 -0.009960 0.653323 0.013588
A -1.725640 1.936862 -0.010234 -1.152378 0.514518 0.296913
A -1.533440 0.371792 1.270582 -0.335795 -0.693908 0.257529
A -0.747204 0.668785 0.528751 0.602596 1.063714 -0.508491
A 2.443696 -1.591047 -1.988003 0.392338 0.703742 0.552298
A 1.631945 2.401833 2.334206 0.183192 0.285717 -0.718686
A -0.730640 1.676600 0.479183 0.819616 -0.653623 2.259029
A 1.129490 -0.294334 0.169340 -2.293417 0.724940 0.289369
A 0.519646 -0.075102 1.435741 -0.724999 1.341417 1.334592
A 0.064426 2.130066 1.674879 0.343247 0.408690 0.156449
A -0.167423 -2.173296 -1.259748 0.878249 -0.218743 -1.105739
A 1.284651 1.468120 0.030695 -1.009509 0.431814 0.861243
A 2.045449 -1.774712 0.732331 0.033488 -1.163135 0.912538
A 1.159088 2.228040 1.414603 0.681789 -0.598353 0.771638
A -0.288606 -1.879508 1.801920 0.599613 0.275945 -1.617603
A 1.790706 1.209203 0.813482 -0.453780 -0.463371 0.845638
A -0.891677 2.469821 1.221392 0.658907 -0.914753 0.401708
A -0.306437 2.140020 -0.409466 1.056711 0.059146 0.112757
A -0.818250 1.287294 -0.524698 0.443651 -0.170057 0.307263
A 1.813279 -1.598174 -1.200204 -0.538346 1.091386 1.099309
A -2.209670 -2.416382 2.483669 -0.497272 -0.321366 0.047056
A -0.779481 -1.715775 -1.942922 -0.875186 0.136458 -1.433836
A -1.128577 2.372187 -2.021872 -0.461692 -0.647767 -0.188272
A -1.033152 -0.293671 -1.038133 -0.070097 -0.536509 -0.876490
A -1.799376 1.320719 -0.798603 -0.176732 -0.331808 0.660694
A -0.324761 -0.784144 -0.307968 0.409644 0.314759 -0.553603
A 0.960994 -0.983267 -1.298548 -0.495294 -0.676218 -0.677452
A 1.051192 0.048969 -1.807368 0.129592 0.311798 0.469734
A -0.221825 0.818803 -2.242045 0.716992 0.859480 0.224315
A 0.791025 2.425170 -1.738883 0.826819 -0.020519 -0.258700
A -0.024126 -0.034657 -1.478158 -1.227189 1.441355 0.007082
A -1.372584 0.153801 -2.002286 0.192564 -0.272117 0.046364
A 1.336675 0.619171 1.645175 0.869281 -0.212345 -0.319708
A -2.290483 1.662215 0.808276 -1.535250 0.493642 0.175432
A -1.098114 -1.276592 0.247873 -0.372073 -0.131297 -0.811426
A -2.135180 0.209476 -1.124575 -1.476317 -1.395326 0.628593
A -0.629111 -0.564975 0.862564 -0.053844 0.324225 1.031318
A -0.296486 1.843330 -1.467577 -2.411838 0.316559 -0.631570
A 1.049501 0.542566 0.715354 2.129318 0.265165 0.907043
A 1.331873 0.920689 -2.311924 0.297014 -0.767099 0.653588
A -1.229534 2.279492 -0.971979 0.787655 0.350514 0.862571
A -0.141974 -1.087045 -1.310714 -0.021768 -0.224092 0.467868
A 0.516289 1.356021 -1.878821 -0.288822 -1.160815 0.522575
A 1.315611 -1.169633 -0.268009 0.274862 0.583719 0.108139
A -2.288086 -1.728424 1.632661 -1.016810 0.061253 0.516215
A 2.278880 2.319673 1.529327 -0.118795 -0.435575 1.882555
A 1.948330 0.474200 0.136588 -1.573865 -0.107907 -0.642226
B 2.152283 -1.929778 2.234539 -0.033579 -0.871161 -0.768793
B -2.312665 1.049753 1.326343 -0.746995 0.148297 -0.053890
B 1.871067 -0.491118 -0.267758 0.377407 0.744108 1.952734
B -1.278808 0.540343 -1.033161 -0.320377 -0.388998 -0.699008
B 0.428140 -0.716987 -1.930963 0.181039 0.579746 -0.952640
B -1.383029 -1.812474 0.924679 1.025914 0.047307 0.321647
B -2.229056 0.693276 -0.423373 -0.039974 0.859558 0.386528
B -1.441336 1.218092 0.252830 0.117314 -0.132136 1.011713
B -1.786624 2.343531 1.543597 -0.038196 0.974129 -0.199440
B 1.727900 0.808321 -0.562487 -0.596086 -0.553260 -1.766276
B 2.142973 -1.129596 1.226439 0.714949 -1.159309 0.261631
B -0.796389 -1.310308 2.236284 1.403729 0.813230 -0.772390
B 0.459446 -1.736685 -1.752980 1.444580 -0.331233 0.959567
B -2.212508 -1.437763 -1.151714 1.352256 0.948346 1.132258
B 2.415603 2.286726 0.113463 0.582149 -0.264778 0.485106
B 0.451641 -1.230808 -0.600043 -0.844712 0.233881 0.037304
B 1.025472 0.008138 2.200271 -0.495022 0.257475 -0.373334
B 0.290585 -2.136524 1.243163 1.626476 0.140206 -0.607637
B -0.110784 1.645933 -2.442434 0.596760 -0.381466 -0.425194
B 0.584041 0.480652 -1.115857 -0.321221 0.696187 0.308418
B 1.372218 -1.056026 0.663665 -0.918195 -0.774547 0.888908
B 0.937932 1.967119 0.688200 -1.933025 0.700245 -1.246687
B 1.305038 1.659667 -1.878759 -0.684802 -0.888322 -0.068910
B -0.809999 -0.202472 0.000666 0.126624 0.342375 0.169542
B 0.443372 2.238648 -0.859938 -1.487572 0.144963 -0.758475
B 0.556587 0.506383 -2.193298 0.513615 0.311037 0.246161
B 0.238157 0.666491 1.027758 -0.641821 0.424043 0.556574
B -0.267550 1.028603 -1.313244 -0.105404 0.725626 0.370591
B -1.437837 1.559805 -2.262828 -0.210244 0.291817 -1.169298
B -0.637866 0.083995 2.293172 -0.374253 -0.445728 0.066249
150
step:5000 columns:id,pos,vel dt:0.002 cell:5.0,5.0,5.0 
A -2.099523 -2.488179 0.790811 -1.285306 0.327058 -1.335435
A -1.620650 -2.019082 -1.171771 0.655702 -0.502380 -1.551744
A 0.968044 0.496204 -0.418690 -0.935358 -0.181437 0.553918
A -1.646601 1.384195 -1.037730 -0.572948 -1.357385 -0.138922
A -0.176465 -2.352462 -2.254544 0.100730 -0.885391 0.873737
A 0.636387 -0.895978 0.421180 -0.028758 -0.989052 0.485764
A -1.918718 1.595762 1.951883 0.785568 0.933187 1.322500
A -0.081115 -1.615988 0.852493 0.492785 1.341098 -0.962560
A -0.202072 2.225252 0.765765 -0.126536 -0.559523 -0.903928
A 0.542324 -1.338679 1.652825 -0.019860 -0.650735 0.337037
A 2.277626 -0.611153 0.600244 -0.719637 -0.123553 0.161810
A -0.870180 -1.526469 -0.735722 1.237389 0.077604 0.282957
A 1.006466 -1.809853 0.837159 -0.033298 -0.488015 0.285928
A 1.627304 -1.896585 -0.163444 0.733739 -0.489801 -0.509532
A -2.048104 2.127717 -1.572647 -0.544832 0.899195 0.655837
A -1.625182 -0.941077 -1.541873 0.544998 -0.794638 -0.186949
A -0.162059 0.963759 2.345734 0.225139 -0.512848 -0.861667
A -1.227021 0.821750 2.112924 0.185391 0.574976 -0.107371
A 0.128546 -0.153725 2.341310 0.450055 -0.559376 -0.258560
A 1.880240 1.273500 1.825812 0.718706 -1.176080 -0.214325
A 2.005095 1.830889 -0.264668 0.932571 -0.716647 0.532569
A 1.498647 0.437177 1.367231 -0.863591 -0.452393 0.104280
A 1.403199 -1.761478 -2.172016 0.160418 0.093935 -0.119227
A -1.679195 -1.945973 -0.097437 0.351049 -0.384047 0.095841
A 2.436028 0.340719 0.784051 -0.488234 -0.246505 0.887361
A -1.809139 1.041739 -2.084623 0.036479 -0.500010 -0.403317
A 1.312165 1.911701 -1.060559 0.340570 0.278391 -0.444173
A 0.560187 1.498292 0.966164 1.448773 -0.857632 -0.275737
A -1.334298 -2.215864 2.301753 0.856419 -0.032246 1.208976
A -1.989345 2.103278 -0.323068 -0.444730 -0.769679 -0.744076
A -0.573804 -2.050736 0.003786 -0.154730 0.542759 0.524054
A 0.512002 -2.089952 -0.130473 -0.695406 1.514995 -0.079639
A -1.911008 -1.374612 0.760748 -0.536397 0.608892 0.389216
A -1.648654 -0.380973 0.607896 0.329452 -0.361134 -0.088645
A 1.936402 2.454616 -1.674722 0.230764 -1.432061 -0.199503
A -0.311043 0.534644 -0.666067 -0.135823 0.066272 0.646198
A 1.797868 2.366613 0.573659 0.516976 -0.241090 0.602544
A 2.230210 1.555378 -2.208771 1.044911 -0.626968 -0.551136
A 2.195674 -1.198710 2.331714 0.394340 -1.202795 -0.981908
A -1.445674 1.355865 0.968683 -0.432677 -0.987616 1.388049
A -0.408223 -0.790148 1.854515 -0.274786 -0.594010 -0.353940
A -1.221947 -0.177847 2.061160 -0.822934 0.167226 -0.926559
A -2.395621 0.536247 1.998799 0.543770 0.236527 -1.350768
A 1.400833 -0.297609 -0.905908 0.130012 0.530817 1.307838
A -0.788395 1.785560 2.276073 0.550922 -0.002393 0.374833
A 0.893986 1.524546 2.178115 0.458133 0.769766 0.164972
A -1.139147 -1.460770 1.442854 -0.608908 -0.337534 -0.411252
A 2.303426 1.402317 -1.108724 1.356222 0.839540 -0.049483
A 0.086561 -0.095448 0.032207 0.223220 0.915448 0.651709
A 2.156404 0.532288 -2.002913 -0.163906 0.009753 0.541855
A 2.492121 -1.325899 -0.202354 -0.299277 0.123063 -1.379255
A -2.194564 -0.583461 1.638932 0.841832 0.207202 0.004056
A -2.425010 -0.021309 -0.188596 -0.815036 0.386956 0.863277
A 0.997764 -2.116271 -1.130105 -0.742088 -1.220746 -0.838901
A 0.708445 -2.128561 2.206008 -1.383405 0.417327 -0.870929
A 2.496552 -0.601535 -1.096675 -0.183247 0.080876 0.114295
A 1.340933 0.844004 -1.258690 0.871333 -1.011795 -0.554393
A -2.181188 -0.358349 -2.311426 -0.043730 1.453058 -0.480697
A 1.064724 -0.832023 2.400133 -1.386260 -0.059033 -0.452076
A 1.900761 -0.215814 2.212999 -0.444125 0.044775 -0.613515
A 2.392540 -2.213910 -0.825145 -0.733374 0.991772 -0.018588
A 0.289269 -0.301502 -1.072636 0.215696 -0.930290 0.218957
A -0.535150 0.224355 1.461340 -2.297476 0.486877 0.615562
A -0.537504 1.297927 1.408257 0.178556 -0.346831 0.466004
A 0.411411 1.355414 -0.813538 -0.741822 1.046626 0.317870
A -1.685667 -1.230039 2.345021 1.177277 -0.520679 -1.064870
A 1.599211 -1.701606 1.662453 1.543432 0.447704 1.053477
A -1.611092 -0.788135 -0.421150 -0.008007 0.712496 0.853769
A -0.646754 -0.555150 -2.109121 0.009078 1.246063 -0.172889
A -0.064302 1.029837 0.228927 -0.508622 -0.735200 0.085607
A 1.796387 -0.579836 -1.829839 0.482169 0.521153 -0.678603
A -1.431963 0.277843 -0.420550 -0.197370 -0.032981 -0.239066
A 0.077662 -1.318197 -2.414394 0.160846 1.458037 -0.147260
A 1.512567 -0.573133 1.304114 -0.731585 0.727541 2.080237
A -1.142386 1.196831 -0.070756 1.052804 1.140106 0.237509
A -1.633005 0.353736 1.325650 0.116019 -0.848232 -1.578945
A -0.826425 0.378781 0.452475 -0.002945 -0.801146 -0.589623
A -2.386421 -1.695491 -1.823775 1.724199 1.201977 -0.256307
A 1.580038 2.264522 2.402580 -1.047787 0.841408 -1.479828
A -1.185601 2.114396 0.256564 0.041498 0.288082 -0.304236
A 1.459096 -0.284924 0.201504 0.210419 -0.176516 0.510741
A 0.464568 -0.325864 1.372326 -0.434918 -0.848257 0.520226
A 0.112515 2.035200 1.775125 0.085256 0.379332 0.428954
A -0.030187 -2.057818 -1.062159 0.075010 -0.027031 1.128106
A 1.006954 1.949175 -0.064352 -0.811265 1.146392 -0.093560
A 2.064370 -1.659271 0.757995 -0.093148 1.771174 0.253122
A 1.206913 2.347300 1.454060 0.072075 1.367667 0.925440
A -0.302730 -2.016881 1.842532 0.407315 -0.036626 -1.169855
A 1.568019 1.360674 0.741942 -0.917959 0.028644 0.360814
A -1.096845 2.303141 1.364442 -0.329941 1.676716 0.686301
A -0.145004 2.031674 -0.229203 0.209828 0.180300 0.478665
A -0.615494 1.399415 -0.886751 -0.114737 -1.024923 -1.396415
A 1.801435 -1.401212 -1.166667 -0.881636 0.003284 0.596658
A -2.276347 2.402211 2.441914 -0.703648 -0.074437 1.519621
A -0.925708 -1.684459 -1.844918 1.024964 -1.258269 1.661221
A -1.093448 2.263463 -1.781202 -0.491329 0.484653 -0.075023
A -0.824896 -0.348648 -1.074253 0.797398 1.045380 -0.588968
A -2.156358 1.007167 -0.284418 -1.078962 0.104655 0.349749
A -0.056629 -1.161145 -0.348530 0.319676 -0.669091 0.401510
A 0.798102 -1.180438 -1.661369 -0.771821 0.164965 -1.559331
A 0.940609 0.065549 -1.804320 0.134577 -0.493169 0.799501
A -0.804032 1.129434 -1.875023 0.066405 -2.016717 1.390849
A 0.705499 2.189243 -1.932615 -0.892823 -0.797453 0.520926
A -0.126212 0.309502 -1.712053 1.427863 -0.681643 1.656959
A -1.315875 0.137970 -1.865423 -1.242516 0.305825 0.209831
A 0.567478 0.672066 1.619739 -0.529393 -0.136164 -0.657164
A -2.465413 1.512954 0.621291 -0.780026 -1.066130 0.251192
A -1.013073 -1.125746 0.353458 0.572748 1.532241 0.017640
A -2.099586 0.364680 -1.338965 -0.124297 -0.040508 -0.036227
A -0.360369 -0.559770 0.827868 -1.607687 -0.965825 -1.013844
A -0.167574 2.059127 -1.420458 0.497287 0.461941 0.287661
A 0.859829 0.529954 0.543799 1.107517 -0.406139 -0.429138
A 1.314615 0.704228 2.437773 0.236412 -0.210524 0.345215
A -0.955390 2.290632 -0.762231 -0.366525 -1.632482 0.213140
A -0.190307 -1.131243 -1.436138 0.912431 0.061592 -0.096442
A 0.684395 1.209266 -1.961910 -0.584649 -0.857298 1.399288
A 1.019149 -1.230219 -0.535161 1.410293 -0.252215 1.041771
A -2.193796 -1.766281 1.674801 1.306135 -0.287963 -1.257858
A 2.257596 2.205244 1.510225 -0.026904 -0.013800 0.144330
A 1.882455 0.733716 -0.075778 -1.238796 -0.475452 -1.216137
B 2.084235 -2.066327 -2.435440 -0.426433 -0.599355 -0.139040
B -2.226123 1.121469 1.379649 -0.129037 -0.317854 -1.810524
B 2.002988 -0.623420 -0.410332 1.287273 0.233548 0.252463
B -1.017371 0.527249 -1.188358 0.083827 -0.089240 -0.192576
B 0.223569 -0.533563 -1.932056 -0.729631 1.457485 0.623209
B -1.258155 -2.011739 0.716797 0.169085 0.200335 -1.316121
B 2.158483 0.407877 -0.815958 -0.884385 2.136962 -0.989193
B -1.688247 0.450316 0.438873 0.372643 0.893833 0.667304
B -1.925979 2.457284 1.640293 -0.449879 0.442798 1.395987
B 1.324302 1.242685 -0.521324 -0.943263 0.341239 -0.886759
B 2.181933 -1.215246 1.436607 1.180960 -0.083885 0.369130
B -0.775989 -1.368276 2.363095 -0.634705 0.265045 -0.514970
B 0.501682 -1.939218 -1.888026 -0.484426 -0.080844 0.989400
B -2.142191 -1.394289 -0.985447 0.423869 -0.356502 0.843677
B 2.347297 -2.186823 0.101184 -0.573835 0.374886 0.848684
B 0.755243 -0.398740 -0.330571 -0.149929 -0.943662 -0.043856
B 1.053866 -0.009097 1.997057 -1.563375 -0.413328 -0.833207
B 0.394979 -2.247251 1.406782 1.380517 0.319342 0.023261
B 0.105718 1.778595 -2.394245 -1.700904 1.838081 -0.906355
B 0.462985 0.522028 -1.055939 0.124472 0.837848 -0.033184
B 1.456858 -1.203369 0.313604 0.217376 -1.649066 -1.500726
B 0.711774 2.385881 0.599498 -0.779489 -0.243508 0.839689
B 1.478799 1.508856 -1.807050 0.385481 0.727469 -0.371984
B -0.809707 -0.322549 -0.072549 0.188129 -0.406727 0.146257
B 0.571749 2.210255 -0.715394 1.174942 0.609586 -1.214276
B 0.504983 0.471924 -2.385444 -0.370553 0.521595 -0.180542
B 0.074840 0.413870 0.909344 2.227834 0.634621 0.326514
B -0.052974 1.172137 -1.531217 0.154710 0.370990 -0.188699
B -1.590156 1.891355 -2.349233 1.046872 -1.738254 -0.065744
B -0.671070 0.222834 -2.423749 -0.443907 -0.578193 -0.207353
150
step:10000 columns:id,pos,vel dt:0.002 cell:5.0,5.0,5.0 
A -1.981526 -2.336498 1.024378 -0.441965 0.684432 0.089392
A -1.931581 -2.043424 -1.372591 1.063160 0.898598 0.181743
A 0.764931 0.476555 -0.456931 -0.638907 0.481028 -0.180313
A -1.422063 1.225478 -1.058385 1.645433 0.071079 0.215707
A -0.468650 2.200079 -2.130474 1.136001 0.568152 -0.282732
A 0.454383 -0.810695 0.459246 0.333271 0.648669 0.969129
A -2.000074 1.903560 1.725770 1.030408 -1.213763 0.177414
A -0.292961 -1.444108 0.976366 1.524750 -0.124190 0.838577
A 0.330228 2.374877 0.652659 -1.329493 0.530673 -1.052752
A 0.447148 -1.026404 1.544477 -0.170570 -0.488070 0.154841
A 2.297140 -0.628469 0.748865 1.810102 -0.009673 0.554187
A -1.009144 -1.541088 -0.805374 0.210549 -0.055495 0.805468
A 0.939716 -1.758733 0.860474 -0.721730 -0.163824 -0.590286
A 1.525423 -2.480747 -0.588288 0.748792 0.019134 -0.608810
A -2.107152 1.939777 -1.052103 -0.172809 0.050084 0.268863
A -1.616349 -0.921303 -1.574925 0.775424 0.253836 -0.579263
A -0.136944 1.252426 2.223576 0.979953 -0.758009 -0.412230
A -1.458802 1.022150 2.044126 -0.965023 0.783252 -1.498438
A 0.051475 -0.195745 2.200133 -0.132245 0.202234 0.549522
A 2.250668 1.229908 2.074703 1.559031 -0.477897 0.903426
A 1.910192 1.658213 -0.269910 1.733384 -0.496737 0.604394
A 1.482690 0.878657 1.383012 -0.292033 0.846740 -1.741202
A 1.414558 -1.713930 -2.091200 -0.556218 0.391976 -0.575102
A -1.666548 -1.914028 -0.035510 0.863171 0.728144 -1.195350
A 2.402909 0.422933 0.605792 -0.017783 -0.205137 0.009013
A -2.073033 1.192341 -2.045479 0.425787 -0.605844 0.182424
A 1.340751 1.749752 -1.245279 -0.999643 -1.517812 1.175461
A 0.515606 1.418607 0.981955 0.365339 0.534124 0.041323
A -1.361614 -2.290796 2.296738 -0.076282 0.035523 -0.631778
A -2.224005 2.077431 0.077906 0.988630 0.272367 0.839900
A -0.447926 -2.065271 0.122625 0.167816 0.016373 0.820150
A 0.542529 -1.902882 -0.196712 -0.214012 1.773905 -0.172432
A -1.925273 -1.249107 0.747236 1.154519 0.271922 -1.529223
A -1.678374 -0.337847 0.503775 -1.472052 1.196866 0.194621
A 2.018453 -2.499792 -1.551364 0.107847 0.485843 0.912369
A -0.352880 0.713933 -0.864527 -1.166743 0.477442 0.989662
A 1.874617 2.352939 0.454140 -0.621269 1.733951 -0.070911
A 1.781673 1.369394 -2.091546 0.165787 0.345264 -0.246491
A 2.096549 -1.134632 2.101752 -0.212606 1.161665 0.836023
A -1.503665 1.369792 0.972575 0.996299 -0.622752 -0.488321
A -0.498506 -1.010650 1.917953 -1.008736 -1.423007 -0.429135
A -1.156694 -0.182300 2.068993 0.316179 -1.200814 0.811235
A -2.160845 0.321387 2.213328 0.119498 -0.484642 -0.412502
A 1.379756 -0.235387 -0.932577 0.721095 -0.586897 -0.235282
A -0.885290 1.938987 1.891144 0.679509 0.517244 -0.420702
A 1.073718 1.563121 2.159252 -0.178898 1.157583 -0.803451
A -1.179418 -1.623085 1.503771 0.927499 0.741428 1.989469
A 2.297406 1.112966 -1.207105 -1.788077 -0.058152 0.361724
A -0.171761 -0.023068 -0.138079 -0.650345 -0.649838 -0.206908
A 2.360004 0.376706 -1.826173 0.407501 -0.414717 0.810192
A -2.486454 -1.219514 -0.061538 -1.473078 0.249685 1.514222
A -1.989865 -0.621610 1.653382 -1.635429 -0.003705 0.793391
A 2.470888 -0.273953 -0.217975 -0.308900 -1.335730 -0.474657
A 0.994105 -1.131966 -0.546270 -0.188184 0.108835 -0.018253
A 0.668929 -2.365027 2.393847 1.092106 0.289197 0.204337
A 2.478256 -0.737464 -1.103760 0.518852 -0.683364 -0.415236
A 1.402433 0.701722 -1.353478 -0.632978 0.610013 -0.444186
A -2.282113 -0.550619 -2.263058 -0.043724 -0.754947 0.283078
A 1.112490 -0.607030 2.270404 0.520759 -0.386548 -0.801895
A 2.081076 -0.002125 1.560058 -0.632617 -0.263817 -1.396405
A 2.488576 -2.112463 -0.587617 -0.816564 -0.687674 -1.254401
A 0.252632 -0.237316 -1.033408 -0.006962 -0.847442 -0.138531
A -0.571559 0.585008 1.675607 0.557666 1.106901 1.565322
A -0.507105 1.440903 1.073460 -0.859626 0.160270 -0.844493
A 0.450220 1.385320 -0.909733 0.291863 0.798189 0.550765
A -1.435713 -1.297285 2.481078 0.503276 0.782841 -0.859296
A 1.322091 -1.907663 1.808925 -0.797212 1.512932 -0.428509
A -1.606583 -0.674504 -0.517071 -0.371598 -0.524201 -0.264750
A -0.714480 -0.622685 -2.121908 0.772994 0.655189 -0.431177
A 0.030303 0.998762 0.115087 -1.041449 -1.269932 0.230577
A 1.766086 -0.595512 -1.927171 -2.185327 -0.205978 -0.461062
A -1.114862 0.248451 -0.408933 0.434037 -0.240636 -0.019184
A 0.422321 -1.392972 2.497158 -0.881354 -0.301974 -0.206115
A 1.440375 -0.930024 1.279606 -0.055196 -0.400867 1.333774
A -0.970441 1.328452 -0.150931 0.678020 -0.480641 -0.003805
A -1.668387 0.311358 1.283063 -0.402128 0.649377 -0.007833
A -0.823308 0.438565 0.668913 -0.823987 1.069670 -1.304694
A 2.416110 -1.509583 -1.899423 -0.745804 0.199497 -0.615796
A 1.659541 2.303106 2.484602 -1.231078 -0.437937 1.532460
A -1.209580 2.254787 0.363745 -0.100121 0.347484 0.703150
A 1.377330 -0.348653 0.061183 0.773616 0.128892 -0.320545
A -0.155931 -0.209812 1.061002 -0.052497 0.339647 -0.327828
A 0.162341 2.139033 1.675325 0.945807 0.174855 1.200922
A -0.197482 -2.168478 -1.007753 -0.253222 -0.622999 0.956235
A 0.899402 1.722111 -0.007814 -0.750091 -0.068934 0.039685
A 2.047830 -1.724054 1.096174 0.323958 -0.710522 0.082486
A 1.104400 2.290219 1.217165 -0.290182 -0.437238 0.328582
A -0.341390 -2.087448 2.148527 0.423529 -1.400879 -0.102788
A 1.435779 0.962498 0.403695 0.042477 -0.065351 0.185953
A -0.695938 -2.420019 1.223103 0.206658 0.826299 -0.183559
A -0.209716 2.014091 -0.197444 -0.703135 0.075042 -0.130039
A -0.477566 1.787967 -1.127855 -0.314089 -0.720267 -0.639232
A 1.766277 -1.529471 -1.078940 0.439342 -0.691981 0.411874
A -2.211744 2.286145 -2.201985 0.359957 0.182971 -0.200354
A -0.952628 -1.942465 -1.770229 0.031829 0.146337 -0.379925
A -1.372913 2.036847 -1.763566 0.595570 -0.159474 0.277801
A -0.722609 -0.523367 -1.073629 -0.377567 -0.324027 -0.440437
A -2.145080 0.998858 -0.195137 -0.144765 1.085160 -0.826562
A -0.073041 -1.097548 -0.452663 0.447704 0.301720 0.812307
A 0.858445 -1.029607 -1.573558 -0.803812 -0.276139 0.544656
A 0.892370 -0.003457 -1.876629 0.473169 -0.607157 -0.503281
A -0.982321 1.103790 -2.023131 1.048524 -0.497002 0.151007
A 0.806945 -1.996197 -1.223734 0.362709 1.441776 0.676241
A -0.178941 0.285211 -1.902213 -0.003844 -1.677021 -1.512635
A -1.547608 0.144013 -2.023004 -0.431695 0.757853 0.897870
A 0.502955 0.629831 1.690805 -0.375248 -0.334462 -0.359241
A 2.402861 1.474514 0.835923 -0.099820 -1.830306 0.678291
A -0.951890 -1.165819 0.217659 -0.585977 0.332262 -0.022943
A -1.957366 0.231148 -0.979828 0.537368 0.469958 -0.232852
A -1.042801 -0.676222 1.166650 -0.779511 -1.455346 -1.348507
A 0.415487 2.143069 -1.587914 -1.894817 -0.301344 -0.410246
A 0.754500 0.247780 0.667155 0.016014 -0.210768 -0.446128
A 1.522398 0.534638 2.411045 0.125017 1.242101 -0.783063
A -1.214515 2.406035 -0.748640 -1.235815 -0.756519 -0.486403
A -0.146442 -1.313058 -1.506589 0.456392 0.897666 -0.227191
A 0.707133 1.104321 -1.966726 -0.458552 0.691425 0.316546
A 1.664101 -1.669854 0.025304 -1.143989 -0.175515 0.271824
A -2.360493 -2.141883 2.020755 1.651980 1.568997 -0.777766
A 2.036041 2.232818 1.502062 0.405431 -0.761245 0.120049
A 1.848461 0.578692 -0.416284 0.318714 0.979379 -0.156709
B -1.886016 -1.905981 -2.153786 0.823634 -2.130769 -0.895440
B -2.144371 1.012831 1.434237 -0.515375 -0.737461 -0.152667
B 1.793355 -0.809455 -0.494540 0.013604 -1.345069 -0.615763
B -1.012079 0.305317 -1.276981 -0.114162 -1.304867 0.343192
B 0.116339 -0.705639 -2.101462 -1.216872 2.222526 0.373749
B -1.136484 -1.876186 0.700062 -0.643647 0.280072 0.266757
B 2.175970 0.149973 -1.040118 0.703507 0.366572 1.729729
B -1.614864 0.491417 0.234597 1.396977 0.190166 -2.426338
B -1.396714 2.127574 1.228504 1.259639 -1.098428 -0.367350
B 1.215184 1.205114 -0.605485 0.554189 1.112514 0.049015
B -2.197073 -1.450358 1.554923 0.745486 -1.134470 0.407911
B -0.624214 -1.481042 -2.327657 -1.090202 0.460202 0.854216
B 0.197986 -2.055446 -1.951594 -0.066669 -2.318166 0.360165
B -1.929649 -1.411885 -0.822220 -0.506826 0.088328 -1.474499
B 2.487382 -2.065065 0.371815 0.899979 0.289507 0.503775
B 0.592555 -0.375491 -0.252411 -0.186100 -0.165155 1.259222
B 0.729326 -0.228274 1.475760 0.739644 0.461200 -0.349788
B 0.566173 -2.019792 1.605565 -1.489311 1.205992 0.136230
B 0.287748 1.912165 -2.443063 -1.025629 -0.311127 -0.144626
B 0.463529 0.581627 -1.241428 -0.446387 0.509115 2.480883
B 1.283746 -1.098424 0.454453 0.973390 -1.497254 -0.764328
B 1.132349 -2.386745 0.264238 1.674620 -1.145803 0.912904
B 1.226289 2.425421 -1.819031 -0.207984 1.018373 0.130376
B -0.825037 -0.358441 0.348068 -0.161968 -1.087220 0.185320
B 0.676226 2.271071 -0.696267 -0.438420 0.224901 -0.825243
B 0.587547 0.473303 2.483560 -0.283976 -1.117460 0.571244
B -0.071309 0.716177 0.999403 -1.099483 1.193103 -0.760403
B -0.119759 1.376749 -1.863604 0.571770 0.598127 0.585036
B -1.565726 1.773052 2.454517 0.210413 0.252856 0.635516
B -0.820036 0.472980 2.458066 0.373469 1.324909 -0.386296
150
step:15000 columns:id,pos,vel dt:0.002 cell:5.0,5.0,5.0 
A -2.429654 2.350262 1.054260 -1.290988 0.579727 0.467140
A -1.834595 -2.082084 -1.460094 0.843975 -0.483389 0.501917
A 0.633260 0.556035 -0.387278 0.468761 0.736835 -0.500042
A -1.401364 1.137942 -0.989360 0.845030 -1.115950 0.303396
A -0.479622 1.967883 -2.318680 0.770792 0.140973 -0.718943
A 0.545325 -0.550654 0.481723 -0.543962 1.186129 1.260717
A -1.982681 1.724206 1.768430 0.450912 -1.303774 -0.393949
A -0.160254 -1.415824 0.723125 -0.017139 0.116265 -0.183809
A 0.229046 -2.400581 0.648706 1.276288 0.004856 -0.689124
A 0.261908 -0.968162 1.637319 -0.922204 0.727043 0.158022
A 2.171366 -0.636209 0.810036 0.264414 0.431962 -0.345544
A -1.077267 -1.515371 -0.984179 0.581273 0.043330 1.208722
A 0.871455 -1.565005 0.889995 1.077045 0.667670 -0.637433
A 1.383406 -2.203052 -0.657455 0.227823 -0.371700 -0.269937
A -2.088072 2.001184 -1.051621 0.396817 1.543407 -0.929982
A -1.093874 -1.524663 -2.140935 1.069000 0.707458 0.559459
A -0.212253 0.975370 2.332743 -0.264275 -0.978360 -0.300650
A -1.440199 0.794326 2.143613 -0.347824 -0.554415 1.082851
A -0.045150 -0.147173 2.232678 -0.517515 0.107311 0.968353
A -2.461486 0.497715 2.277845 -0.137420 0.389550 -1.209900
A 1.969180 1.954452 -0.495996 0.330796 -0.457996 0.578053
A 1.433047 0.215589 1.132489 -0.170345 0.701829 0.307378
A 1.742000 -2.091350 -2.401228 -0.530371 0.766391 -0.192059
A -1.632985 -1.626063 -0.040028 0.179384 -0.926243 -0.269108
A 2.338593 0.383824 0.742962 0.256165 -0.270625 -0.235111
A -1.937571 1.076474 -1.929537 -0.492300 1.101337 -0.533902
A 1.334841 1.923156 -1.343442 0.693977 0.150633 -0.636748
A 0.549631 1.597561 1.014465 0.286181 -0.252179 -0.756261
A -1.221596 -2.483788 2.188963 -1.106227 -0.520926 0.136198
A -1.937550 2.085866 -0.019973 1.123734 0.163942 -0.661404
A -0.490141 -1.829832 -0.125783 -0.999835 0.636047 -1.731452
A 0.613790 -1.814353 -0.055696 -0.451265 -0.863091 -0.584375
A -2.334414 -1.505659 0.749774 -0.374401 -0.663889 0.646300
A -1.779031 -0.205691 0.359215 -0.952122 -0.453461 -0.707606
A 2.080741 -2.326216 -1.481756 -0.462792 0.164259 1.282058
A -0.387868 0.665149 -0.847645 -1.011634 -0.441850 -0.224418
A 1.573348 1.931654 0.975536 -0.148838 -0.861404 -0.068119
A 1.970298 1.380308 -2.206554 -0.608496 -1.490310 -0.709529
A 2.124436 -1.221493 2.067142 -0.314182 -0.036619 -0.654921
A -1.630088 1.448691 0.807283 -0.404415 0.895851 -0.755769
A -0.734526 -1.283550 1.745110 0.169799 -0.641765 -0.608698
A -1.083240 -0.313177 1.935886 0.975023 -0.076237 -1.215988
A -2.420763 -0.490075 -2.285042 0.761261 -0.509524 0.510120
A 1.430126 -0.090599 -0.966534 1.017805 -0.594509 1.124462
A -0.890731 1.574283 1.750304 -1.497559 1.205081 -0.000822
A 1.101599 1.572953 1.947723 -1.023903 0.228624 -0.879839
A -1.560640 -1.877956 1.314741 -0.399093 -0.443410 0.116509
A 2.226509 1.274529 -1.231958 0.832048 1.403209 -0.416121
A -0.202572 -0.059837 -0.079863 -0.492136 0.048701 0.796762
A 2.093878 0.350850 -1.826299 -0.032173 -0.823382 0.058210
A 2.411586 -1.084456 -0.126790 -1.758436 1.168127 -0.906257
A -2.170659 -0.286528 1.535475 -0.039942 1.049044 -0.262777
A 2.388947 -0.106034 -0.306678 -0.139508 0.025054 0.949434
A 1.390092 -1.198835 -0.058777 -0.612497 0.564192 0.332586