256
step:100000 columns:name,pos cell:5.97520638,5.97520638,5.97520638 dt:0.002
0 -1.714839 -0.937949 -2.131360
0 -1.211776 2.948494 2.511917
0 1.996235 2.523680 2.226487
0 0.855585 0.453260 -1.029755
0 1.037601 -1.981316 -0.560220
0 -2.924127 1.033881 1.487932
0 2.054192 -0.421368 1.695819
0 0.455098 2.599549 -0.692177
0 2.787556 2.913021 0.461690
0 -2.181990 -2.831126 -1.736475
0 -0.836992 -0.979177 1.144547
0 -1.705387 -2.830942 0.810116
0 1.976074 1.560541 -2.091745
0 -0.765709 -2.100554 2.966101
0 -0.033721 -1.780223 1.461107
0 1.899691 1.067534 2.925289
0 2.090738 1.308563 1.191187
0 1.110322 -1.567127 2.794823
0 1.851355 0.837021 0.293442
0 -0.282999 1.679649 0.762956
0 -1.077636 1.021629 -2.910218
0 -1.336326 2.759152 -1.872501
0 -1.959630 0.891868 2.467443
0 -2.792503 2.822683 -0.984712
0 -1.194005 -0.095918 0.797072
0 -2.302560 -2.559405 2.485803
0 0.956890 1.779575 -2.005509
0 0.417521 -1.202130 0.645061
0 1.392436 0.200575 2.545116
0 1.114344 -0.279304 -1.691260
0 0.391610 0.746289 -1.930535
0 -2.311679 2.284348 0.684273
0 -2.029791 1.585168 1.490434
0 -1.436315 2.380307 -0.968121
0 -1.102996 1.948307 -2.484377
0 1.840881 2.219005 0.627629
0 -1.240822 -0.492106 1.978958
0 1.245068 2.860391 1.237657
0 2.001627 -0.871109 -1.597886
0 1.833268 -2.621801 0.350407
0 1.413619 1.840063 1.743201
0 2.232766 -0.865732 0.481627
0 2.409336 1.593723 2.052789
0 0.064737 -1.550703 2.668711
0 2.821823 -0.440928 -2.059196
0 -2.979368 2.447503 2.595696
0 2.504344 -1.982476 0.914877
0 0.094075 -2.464132 -0.311040
0 -2.764923 -2.448177 -2.530550
0 -2.886384 -0.901024 2.325303
0 -2.228344 1.468435 -2.631215
0 -0.526823 -2.451495 2.057016
0 1.043204 -2.276548 -2.450839
0 1.352097 0.623085 1.549460
0 -1.475669 -1.099288 2.878324
0 2.923354 -1.677845 1.809526
0 -2.333175 -1.690287 2.944808
0 1.459607 -2.572708 2.661503
0 1.429519 -1.657564 1.002119
0 -2.880306 -0.824010 1.359955
0 1.585475 -0.107650 0.805346
0 0.076819 -1.897004 -2.250535
0 -2.903979 0.036361 1.916138
0 2.684886 1.220267 -0.310793
0 2.635786 -0.046352 2.829426
0 1.148866 1.500827 0.668134
0 -1.573180 0.428010 1.575892
0 0.382940 1.790665 -0.104901
0 -0.943558 2.366256 0.047026
0 0.948476 2.859632 0.207954
0 1.506410 0.663620 -1.996945
0 -2.750585 0.419395 -0.093356
0 -1.049391 1.319238 1.836230
0 -1.503403 0.334994 -0.995023
0 -0.391182 2.189425 1.680699
0 -0.428859 -2.836610 -1.465196
0 1.798321 2.510228 -2.529814
0 1.860795 2.377673 -1.494230
0 -0.434441 -0.345066 -1.210999
0 1.632326 1.371997 -1.101213
0 0.205161 2.439907 -2.912039
0 1.833772 -0.832757 2.586274
0 -1.269960 2.159809 1.050280
0 0.806914 -1.290874 1.902725
0 -2.153104 2.582721 -2.709170
0 -1.614982 -2.449627 -2.594075
0 2.236513 -0.004521 -0.111570
0 -2.343156 -1.342366 -0.053258
0 -1.731044 0.386559 -0.002215
0 1.847034 -0.004350 -1.049689
0 0.164751 -2.545915 2.959352
0 -0.802914 0.848021 0.981575
0 0.602332 -0.468420 2.757372
0 0.542526 -2.343084 -1.357144
0 -0.302801 -0.666489 0.292570
0 -0.416940 0.661460 -1.034830
0 2.547881 0.194187 0.991262
0 2.873317 -0.169337 -1.034248
0 -0.979079 -2.118532 -1.844252
0 1.322873 2.052818 -0.256736
0 -0.558038 -0.368219 2.929755
0 2.664340 -1.549337 -0.156841
0 2.850358 -2.302773 -1.564148
0 -2.012164 -1.325588 2.024481
0 1.085472 1.044951 -0.284532
0 -2.808228 -0.570902 0.328379
0 -1.543428 1.306174 -0.584025
0 0.280969 -1.272529 -0.372846
0 0.540227 0.575648 2.166731
0 -1.307685 -0.798558 0.051071
0 -1.285397 -2.622762 -0.952998
0 -2.379983 -2.162621 -0.799144
0 -0.342022 -1.899902 -1.034692
0 0.796773 -0.270935 1.575841
0 -0.004969 2.711084 0.335310
0 2.950861 1.046366 2.750539
0 -0.298723 2.202975 -1.922290
0 2.185157 0.575989 2.093339
0 1.840256 -2.591577 -1.724723
0 2.173130 -2.822548 1.415115
0 -2.259659 1.334056 0.245457
0 2.753264 2.801731 -1.964144
0 -0.472528 -1.668778 0.292575
0 2.701451 1.821946 -1.187504
0 2.625568 -2.527925 -0.479063
0 -2.074408 -0.218071 2.358558
0 2.469107 0.702824 -1.248554
0 2.841144 -1.484536 -2.349148
0 -2.487167 -0.723815 -2.766763
0 0.705862 2.632291 2.132046
0 1.232891 2.046391 2.757795
0 -1.623946 1.915920 2.530977
0 -0.600763 1.022993 -0.060932
0 0.225468 0.021968 -0.393755
0 -1.216417 -0.217346 -1.780350
0 -1.125899 -1.173172 -1.266198
0 -0.978897 -2.164572 1.161327
0 -0.125767 1.424678 -2.662729
0 0.659678 -2.305788 1.874327
0 0.743888 -1.131786 -2.318844
0 -2.379424 -1.748703 1.110598
0 2.500471 0.676429 -2.361882
0 -1.936198 2.651909 1.814299
0 -2.211148 2.057276 -1.689426
0 -0.782810 0.031911 -0.301967
0 0.443859 1.463757 -1.124797
0 1.827505 -1.309387 -2.524262
0 -0.230938 0.080279 1.424375
0 -2.248198 -0.093000 -1.663675
0 2.462124 -1.568615 2.752073
0 -1.533357 0.018341 -2.708465
0 -1.761032 -2.250648 1.760640
0 -2.165101 -1.833861 -1.853025
0 -2.547867 -2.258672 0.211331
0 0.240088 -1.124647 -1.461524
0 -2.210096 -0.301803 -0.626533
0 -0.139531 -0.795891 1.987780
0 -1.923928 -0.840762 1.066812
0 0.094229 -2.880141 1.338923
0 2.901156 -1.239641 -1.312051
0 -0.594649 0.632054 -2.076064
0 -0.636365 -2.923401 -2.487409
0 -1.640897 0.897223 -1.973127
0 -1.564776 -1.797665 0.449909
0 -2.733011 -2.698203 1.415155
0 -1.279132 -1.626015 -0.456807
0 1.548426 -2.856365 -0.707084
0 0.010147 -0.231680 -2.145676
0 1.218545 -0.095963 -0.152019
0 -1.016427 -2.637147 0.099606
0 2.318612 2.398534 -0.382825
0 1.342240 -1.684792 -1.646412
0 -0.385609 1.913766 -0.675317
0 -0.063440 1.077692 1.574655
0 -2.072521 -1.112578 -1.203416
0 1.790343 -0.229774 -2.494941
0 1.141873 -0.934879 -0.870048
0 -2.018597 2.756424 -0.139120
0 -0.901658 -1.493381 2.162525
0 0.521542 2.103270 1.160813
0 -0.692585 -1.118610 -2.184387
0 -0.655971 1.942977 2.616493
0 1.997018 -1.901901 -0.929118
0 -1.035160 1.532593 -1.431909
0 0.892079 1.148203 -2.790088
0 -2.555156 0.428258 -2.578664
0 -2.708822 1.156994 -1.786840
0 0.735184 2.735143 -1.812532
0 2.768091 1.750224 0.600416
0 -2.374973 0.759684 -0.966879
0 2.132550 -2.398467 -2.603799
0 -2.961380 2.267297 1.424174
0 2.651923 -2.500426 2.306227
0 0.301304 0.942807 0.641593
0 -0.741486 0.459042 2.324149
0 0.043011 0.462792 -2.966837
0 0.290391 1.708237 2.327236
0 1.795947 -1.874677 2.003229
0 2.837077 1.808756 -2.626163
0 -2.378781 1.842160 -0.679438
0 2.082490 -0.843360 -0.616017
0 0.548990 -0.228561 0.626148
0 -2.419594 0.165849 0.969380
0 1.383408 -1.098676 0.049337
0 0.639608 -2.300164 0.647965
1 2.319328 -1.200476 1.234300
1 0.201016 1.028183 -0.437776
1 0.546449 0.381816 1.228631
1 -1.186998 2.977913 1.652259
1 0.439135 -0.342922 -1.080948
1 1.106338 0.635017 0.508628
1 -0.589397 2.856276 -0.632402
1 -1.716111 1.986939 -0.082875
1 -1.369215 -1.606323 -2.458250
1 -1.802583 -2.348444 -0.176171
1 2.074595 1.661759 0.024460
1 2.042063 0.670472 -0.502518
1 -0.315813 0.344039 0.437679
1 2.207984 -1.796624 -1.763030
1 -1.610631 -2.046375 2.596592
1 0.947701 2.588502 -2.541353
1 -0.268476 2.701937 2.311391
1 2.362186 -2.962597 -1.169769
1 2.419766 2.798555 -2.836398
1 -2.449205 1.652554 2.241715
1 -1.120256 1.535798 0.404742
1 2.181242 0.060806 -1.847930
1 -1.538219 -1.543349 1.367166
1 -0.808641 2.855454 0.749770
1 -0.301755 1.145533 2.479663
1 0.870854 0.086658 -2.383316
1 -2.837037 2.236654 -0.063621
1 -0.682127 -1.083331 -0.598662
1 2.438351 -0.752588 -2.770308
1 0.015089 -0.654993 1.144448
1 -2.866835 -0.948422 -0.580034
1 0.097141 -2.709684 -2.141448
1 2.087463 1.941391 2.830965
1 -1.935793 1.378768 -1.287984
1 1.283910 1.191268 2.303991
1 -0.011707 -0.936615 -2.735404
1 2.875887 0.923774 0.666314
1 0.757448 1.239545 1.535219
1 -1.927489 -0.378531 0.383226
1 -2.908096 -1.353549 0.628946
1 1.867631 -1.744514 0.082272
1 1.073130 2.146067 -1.191487
1 -1.680777 0.903039 0.903909
1 -0.278878 -2.500320 0.536278
1 1.235587 -0.828426 1.131953
1 -2.516499 -0.934580 -1.849096
1 -0.100311 1.383048 -1.843552
1 -1.567935 -1.929661 -1.182764
1 -1.407439 -0.539959 -0.861991
1 -0.046650 -0.072115 2.339923
1 2.158002 2.109814 1.346201
